#------------------------------------------------------------------------------
# This is a fake CIF file to demonstrate rgl.cry package.
# These parameters were dirived from [1] and have been modified for our use.
#
# [1] https://www.crystallography.net/cod/8104233.cif
#------------------------------------------------------------------------------

_chemical_formula_sum            Na
_space_group_IT_number           229
_symmetry_space_group_name_Hall  '-I 4 2 3'
_symmetry_space_group_name_H-M   'I m -3 m'
_cell_angle_alpha                90
_cell_angle_beta                 90
_cell_angle_gamma                90
_cell_formula_units_Z            2
_cell_length_a                   4.282
_cell_length_b                   4.282
_cell_length_c                   4.282
_cell_volume                     78.513
_citation_journal_id_ASTM        ZKKKAJ
_cod_data_source_file            Aruja_ZKKKAJ_1939_796.cif
_cod_data_source_block           Na1
_cod_original_cell_volume        78.51272
_cod_original_formula_sum        Na1
_cod_database_code               8104233

loop_
_symmetry_equiv_pos_as_xyz
x,y,z
-y,x,z
-x,-y,z
y,-x,z
x,-y,-z
y,x,-z
-x,y,-z
-y,-x,-z
z,x,y
-x,z,y
-z,-x,y
x,-z,y
z,-x,-y
x,z,-y
-z,x,-y
-x,-z,-y
y,z,x
y,-z,-x
z,y,-x
-y,z,-x
-z,-y,-x
-y,-z,x
z,-y,x
-z,y,x
-x,-y,-z
y,-x,-z
x,y,-z
-y,x,-z
-x,y,z
-y,-x,z
x,-y,z
y,x,z
-z,-x,-y
x,-z,-y
z,x,-y
-x,z,-y
-z,x,y
-x,-z,y
z,-x,y
x,z,y
-y,-z,-x
-y,z,x
-z,-y,x
y,-z,x
z,y,x
y,z,-x
-z,y,-x
z,-y,-x
x+1/2,y+1/2,z+1/2
-y+1/2,x+1/2,z+1/2
-x+1/2,-y+1/2,z+1/2
y+1/2,-x+1/2,z+1/2
x+1/2,-y+1/2,-z+1/2
y+1/2,x+1/2,-z+1/2
-x+1/2,y+1/2,-z+1/2
-y+1/2,-x+1/2,-z+1/2
z+1/2,x+1/2,y+1/2
-x+1/2,z+1/2,y+1/2
-z+1/2,-x+1/2,y+1/2
x+1/2,-z+1/2,y+1/2
z+1/2,-x+1/2,-y+1/2
x+1/2,z+1/2,-y+1/2
-z+1/2,x+1/2,-y+1/2
-x+1/2,-z+1/2,-y+1/2
y+1/2,z+1/2,x+1/2
y+1/2,-z+1/2,-x+1/2
z+1/2,y+1/2,-x+1/2
-y+1/2,z+1/2,-x+1/2
-z+1/2,-y+1/2,-x+1/2
-y+1/2,-z+1/2,x+1/2
z+1/2,-y+1/2,x+1/2
-z+1/2,y+1/2,x+1/2
-x+1/2,-y+1/2,-z+1/2
y+1/2,-x+1/2,-z+1/2
x+1/2,y+1/2,-z+1/2
-y+1/2,x+1/2,-z+1/2
-x+1/2,y+1/2,z+1/2
-y+1/2,-x+1/2,z+1/2
x+1/2,-y+1/2,z+1/2
y+1/2,x+1/2,z+1/2
-z+1/2,-x+1/2,-y+1/2
x+1/2,-z+1/2,-y+1/2
z+1/2,x+1/2,-y+1/2
-x+1/2,z+1/2,-y+1/2
-z+1/2,x+1/2,y+1/2
-x+1/2,-z+1/2,y+1/2
z+1/2,-x+1/2,y+1/2
x+1/2,z+1/2,y+1/2
-y+1/2,-z+1/2,-x+1/2
-y+1/2,z+1/2,x+1/2
-z+1/2,-y+1/2,x+1/2
y+1/2,-z+1/2,x+1/2
z+1/2,y+1/2,x+1/2
y+1/2,z+1/2,-x+1/2
-z+1/2,y+1/2,-x+1/2
z+1/2,-y+1/2,-x+1/2

loop_
_atom_site_label
_atom_site_type_symbol
_atom_site_fract_x
_atom_site_fract_y
_atom_site_fract_z
_atom_site_occupancy
_atom_site_U_iso_or_equiv
Na1 Na 0 0 0 1 0.0
